LAMMPS (23 May 2014)
  using 1 OpenMP thread(s) per MPI task
Created orthogonal box = (0 0 0) to (40 40 40)
  1 by 1 by 1 MPI processor grid
Created 64000 atoms
Setting up run ...
Memory usage per processor = 22.4037 Mbytes
Step Temp E_pair E_mol TotEng Press 
       0            0    1.5912684            0    1.5912684    1.5910515 
      40 3.6594833e-05    1.5912136            0    1.5912684    1.5910787 
      80 0.00014636058    1.5910489            0    1.5912684    1.5911603 
     120 0.00032924102    1.5907746            0    1.5912684    1.5912963 
     160 0.0005851424    1.5903907            0    1.5912684    1.5914864 
     200 0.0009139335    1.5898976            0    1.5912684    1.5917308 
     240 0.0013154456    1.5892953            0    1.5912684    1.5920291 
     280 0.0017894726    1.5885843            0    1.5912684    1.5923813 
     320  0.002335771    1.5877648            0    1.5912684     1.592787 
     360 0.0029540601    1.5868374            0    1.5912684    1.5932463 
     400 0.0036440223    1.5858025            0    1.5912684    1.5937586 
     440 0.0044053026    1.5846606            0    1.5912684    1.5943234 
     480 0.0052375086    1.5834123            0    1.5912684    1.5949405 
     520 0.0061402108    1.5820583            0    1.5912684    1.5956091 
     560 0.0071129417    1.5805992            0    1.5912684    1.5963288 
     600 0.0081551971    1.5790358            0    1.5912684    1.5970991 
     640  0.009266436     1.577369            0    1.5912684    1.5979198 
     680  0.010446081    1.5755996            0    1.5912684    1.5987899 
     720  0.011693518    1.5737284            0    1.5912684    1.5997089 
     760  0.013008096    1.5717566            0    1.5912684    1.6006757 
     800  0.014389127    1.5696851            0    1.5912684    1.6016895 
     840  0.015835887     1.567515            0    1.5912684    1.6027493 
     880  0.017347615    1.5652474            0    1.5912684    1.6038551 
     920  0.018923517    1.5628836            0    1.5912684    1.6050057 
     960  0.020562758    1.5604248            0    1.5912684    1.6061996 
    1000  0.022264472    1.5578723            0    1.5912684    1.6074361 
    1040  0.024027753    1.5552274            0    1.5912684    1.6087146 
    1080  0.025851665    1.5524916            0    1.5912684    1.6100348 
    1120  0.027735234    1.5496662            0    1.5912684    1.6113954 
    1160  0.029677459     1.546753            0    1.5912684    1.6127963 
    1200  0.031677301    1.5437532            0    1.5912684    1.6142368 
    1240  0.033733688    1.5406687            0    1.5912684    1.6157145 
    1280  0.035845512     1.537501            0    1.5912684    1.6172283 
    1320  0.038011635    1.5342519            0    1.5912684    1.6187777 
    1360  0.040230884    1.5309231            0    1.5912684    1.6203618 
    1400  0.042502053    1.5275164            0    1.5912684    1.6219798 
    1440  0.044823907    1.5240336            0    1.5912684    1.6236267 
    1480  0.047195186    1.5204768            0    1.5912684    1.6253033 
    1520    0.0496146    1.5168477            0    1.5912684    1.6270098 
    1560  0.052080825    1.5131484            0    1.5912684    1.6287438 
    1600  0.054592509     1.509381            0    1.5912684    1.6305056 
    1640  0.057148269    1.5055474            0    1.5912684    1.6322918 
    1680  0.059746697    1.5016498            0    1.5912684    1.6341011 
    1720   0.06238637    1.4976904            0    1.5912684    1.6359358 
    1760  0.065065841    1.4936712            0    1.5912684     1.637794 
    1800  0.067783632    1.4895946            0    1.5912684    1.6396732 
    1840  0.070538229    1.4854628            0    1.5912684    1.6415722 
    1880  0.073328112     1.481278            0    1.5912684    1.6434905 
    1920  0.076151741    1.4770426            0    1.5912684    1.6454265 
    1960  0.079007557     1.472759            0    1.5912684    1.6473794 
    2000  0.081893983    1.4684294            0    1.5912684    1.6493474 
    2040  0.084809418    1.4640563            0    1.5912684    1.6513301 
    2080  0.087752254    1.4596421            0    1.5912684    1.6533259 
    2120  0.090720861    1.4551893            0    1.5912684    1.6553341 
    2160  0.093713606    1.4507002            0    1.5912684    1.6573519 
    2200  0.096728835    1.4461775            0    1.5912684    1.6593764 
    2240  0.099764874    1.4416235            0    1.5912684    1.6614061 
    2280   0.10282006    1.4370408            0    1.5912684    1.6634417 
    2320   0.10589269    1.4324319            0    1.5912684    1.6654791 
    2360   0.10898106    1.4277994            0    1.5912684    1.6675225 
    2400   0.11208346    1.4231459            0    1.5912684    1.6695682 
    2440   0.11519817    1.4184739            0    1.5912684    1.6716151 
    2480   0.11832349     1.413786            0    1.5912684    1.6736573 
    2520   0.12145769    1.4090848            0    1.5912684    1.6756987 
    2560   0.12459906    1.4043728            0    1.5912684    1.6777343 
    2600   0.12774589    1.3996526            0    1.5912684    1.6797638 
    2640   0.13089642    1.3949269            0    1.5912684    1.6817876 
    2680   0.13404894    1.3901982            0    1.5912684    1.6838054 
    2720   0.13720175     1.385469            0    1.5912684    1.6858165 
    2760   0.14035318     1.380742            0    1.5912684    1.6878204 
    2800   0.14350153    1.3760195            0    1.5912684    1.6898169 
    2840   0.14664511    1.3713042            0    1.5912684    1.6918026 
    2880   0.14978227    1.3665986            0    1.5912684    1.6937757 
    2920   0.15291133     1.361905            0    1.5912684    1.6957333 
    2960   0.15603063    1.3572262            0    1.5912684    1.6976742 
    3000    0.1591385    1.3525644            0    1.5912684     1.699605 
    3040   0.16223335    1.3479222            0    1.5912684    1.7015174 
    3080   0.16531357     1.343302            0    1.5912684    1.7034097 
    3120   0.16837762     1.338706            0    1.5912684    1.7052865 
    3160   0.17142401    1.3341365            0    1.5912684    1.7071465 
    3200   0.17445122    1.3295957            0    1.5912684    1.7089947 
    3240    0.1774578    1.3250859            0    1.5912684    1.7108228 
    3280   0.18044227    1.3206093            0    1.5912684    1.7126305 
    3320   0.18340321    1.3161679            0    1.5912684    1.7144158 
    3360   0.18633921     1.311764            0    1.5912684    1.7161803 
    3400    0.1892489    1.3073995            0    1.5912684    1.7179341 
    3440   0.19213097    1.3030765            0    1.5912684    1.7196671 
    3480   0.19498409    1.2987969            0    1.5912684    1.7213745 
    3520   0.19780697    1.2945626            0    1.5912684    1.7230585 
    3560   0.20059839    1.2903756            0    1.5912684    1.7247218 
    3600   0.20335712    1.2862375            0    1.5912684    1.7263605 
    3640   0.20608197    1.2821503            0    1.5912684    1.7279766 
    3680   0.20877181    1.2781156            0    1.5912684    1.7295663 
    3720   0.21142555    1.2741351            0    1.5912684    1.7311293 
    3760   0.21404212    1.2702103            0    1.5912684      1.73266 
    3800   0.21662046    1.2663428            0    1.5912684    1.7341564 
    3840   0.21915956    1.2625342            0    1.5912684    1.7356246 
    3880   0.22165848    1.2587859            0    1.5912684    1.7370732 
    3920   0.22411628    1.2550993            0    1.5912684    1.7384978 
    3960   0.22653211    1.2514756            0    1.5912684    1.7398933 
    4000   0.22890516    1.2479161            0    1.5912684    1.7412615 
Loop time of 313.321 on 1 procs (1 MPI x 1 OpenMP) for 4000 steps with 64000 atoms

Pair  time (%) = 298.642 (95.3151)
Neigh time (%) = 0.274825 (0.0877137)
Comm  time (%) = 2.05732 (0.656617)
Outpt time (%) = 0.304424 (0.0971605)
Other time (%) = 12.0423 (3.84346)

Nlocal:    64000 ave 64000 max 64000 min
Histogram: 1 0 0 0 0 0 0 0 0 0
Nghost:    19616 ave 19616 max 19616 min
Histogram: 1 0 0 0 0 0 0 0 0 0
Neighs:    877779 ave 877779 max 877779 min
Histogram: 1 0 0 0 0 0 0 0 0 0

Total # of neighbors = 877779
Ave neighs/atom = 13.7153
Neighbor list builds = 3
Dangerous builds = 0
