ITEM: TIMESTEP
0
ITEM: NUMBER OF ATOMS
4001
ITEM: BOX BOUNDS pp pp pp
0 36.8
0 36.8
0 36.8
ITEM: ATOMS id type xs ys zs
1 1 0 0 0
2 1 0.05 0.05 0
3 1 0.05 0 0.05
4 1 0 0.05 0.05
5 1 0.1 0 0
8 1 0.1 0.05 0.05
41 1 0 0.1 0
43 1 0.05 0.1 0.05
45 1 0.1 0.1 0
401 1 0 0 0.1
402 1 0.05 0.05 0.1
405 1 0.1 0 0.1
441 1 0 0.1 0.1
445 1 0.1 0.1 0.1
6 1 0.15 0.05 0
7 1 0.15 0 0.05
9 1 0.2 0 0
12 1 0.2 0.05 0.05
47 1 0.15 0.1 0.05
49 1 0.2 0.1 0
406 1 0.15 0.05 0.1
409 1 0.2 0 0.1
449 1 0.2 0.1 0.1
10 1 0.25 0.05 0
11 1 0.25 0 0.05
13 1 0.3 0 0
16 1 0.3 0.05 0.05
51 1 0.25 0.1 0.05
53 1 0.3 0.1 0
410 1 0.25 0.05 0.1
413 1 0.3 0 0.1
453 1 0.3 0.1 0.1
14 1 0.35 0.05 0
15 1 0.35 0 0.05
17 1 0.4 0 0
20 1 0.4 0.05 0.05
55 1 0.35 0.1 0.05
57 1 0.4 0.1 0
414 1 0.35 0.05 0.1
417 1 0.4 0 0.1
457 1 0.4 0.1 0.1
18 1 0.45 0.05 0
19 1 0.45 0 0.05
21 1 0.5 0 0
22 1 0.55 0.05 0
23 1 0.55 0 0.05
24 1 0.5 0.05 0.05
59 1 0.45 0.1 0.05
61 1 0.5 0.1 0
63 1 0.55 0.1 0.05
418 1 0.45 0.05 0.1
421 1 0.5 0 0.1
422 1 0.55 0.05 0.1
461 1 0.5 0.1 0.1
25 1 0.6 0 0
26 1 0.65 0.05 0
27 1 0.65 0 0.05
28 1 0.6 0.05 0.05
65 1 0.6 0.1 0
67 1 0.65 0.1 0.05
425 1 0.6 0 0.1
426 1 0.65 0.05 0.1
465 1 0.6 0.1 0.1
29 1 0.7 0 0
30 1 0.75 0.05 0
31 1 0.75 0 0.05
32 1 0.7 0.05 0.05
69 1 0.7 0.1 0
71 1 0.75 0.1 0.05
429 1 0.7 0 0.1
430 1 0.75 0.05 0.1
469 1 0.7 0.1 0.1
33 1 0.8 0 0
34 1 0.85 0.05 0
35 1 0.85 0 0.05
36 1 0.8 0.05 0.05
73 1 0.8 0.1 0
75 1 0.85 0.1 0.05
433 1 0.8 0 0.1
434 1 0.85 0.05 0.1
473 1 0.8 0.1 0.1
37 1 0.9 0 0
38 1 0.95 0.05 0
39 1 0.95 0 0.05
40 1 0.9 0.05 0.05
77 1 0.9 0.1 0
79 1 0.95 0.1 0.05
437 1 0.9 0 0.1
438 1 0.95 0.05 0.1
477 1 0.9 0.1 0.1
42 1 0.05 0.15 0
44 1 0 0.15 0.05
48 1 0.1 0.15 0.05
81 1 0 0.2 0
83 1 0.05 0.2 0.05
85 1 0.1 0.2 0
442 1 0.05 0.15 0.1
481 1 0 0.2 0.1
485 1 0.1 0.2 0.1
46 1 0.15 0.15 0
52 1 0.2 0.15 0.05
87 1 0.15 0.2 0.05
89 1 0.2 0.2 0
446 1 0.15 0.15 0.1
489 1 0.2 0.2 0.1
50 1 0.25 0.15 0
56 1 0.3 0.15 0.05
91 1 0.25 0.2 0.05
93 1 0.3 0.2 0
450 1 0.25 0.15 0.1
493 1 0.3 0.2 0.1
54 1 0.35 0.15 0
60 1 0.4 0.15 0.05
95 1 0.35 0.2 0.05
97 1 0.4 0.2 0
454 1 0.35 0.15 0.1
497 1 0.4 0.2 0.1
58 1 0.45 0.15 0
62 1 0.55 0.15 0
64 1 0.5 0.15 0.05
99 1 0.45 0.2 0.05
101 1 0.5 0.2 0
103 1 0.55 0.2 0.05
458 1 0.45 0.15 0.1
462 1 0.55 0.15 0.1
501 1 0.5 0.2 0.1
66 1 0.65 0.15 0
68 1 0.6 0.15 0.05
105 1 0.6 0.2 0
107 1 0.65 0.2 0.05
466 1 0.65 0.15 0.1
505 1 0.6 0.2 0.1
70 1 0.75 0.15 0
72 1 0.7 0.15 0.05
109 1 0.7 0.2 0
111 1 0.75 0.2 0.05
470 1 0.75 0.15 0.1
509 1 0.7 0.2 0.1
74 1 0.85 0.15 0
76 1 0.8 0.15 0.05
113 1 0.8 0.2 0
115 1 0.85 0.2 0.05
474 1 0.85 0.15 0.1
513 1 0.8 0.2 0.1
78 1 0.95 0.15 0
80 1 0.9 0.15 0.05
117 1 0.9 0.2 0
119 1 0.95 0.2 0.05
478 1 0.95 0.15 0.1
517 1 0.9 0.2 0.1
82 1 0.05 0.25 0
84 1 0 0.25 0.05
88 1 0.1 0.25 0.05
121 1 0 0.3 0
123 1 0.05 0.3 0.05
125 1 0.1 0.3 0
482 1 0.05 0.25 0.1
521 1 0 0.3 0.1
525 1 0.1 0.3 0.1
86 1 0.15 0.25 0
92 1 0.2 0.25 0.05
127 1 0.15 0.3 0.05
129 1 0.2 0.3 0
486 1 0.15 0.25 0.1
529 1 0.2 0.3 0.1
90 1 0.25 0.25 0
96 1 0.3 0.25 0.05
131 1 0.25 0.3 0.05
133 1 0.3 0.3 0
490 1 0.25 0.25 0.1
533 1 0.3 0.3 0.1
94 1 0.35 0.25 0
100 1 0.4 0.25 0.05
135 1 0.35 0.3 0.05
137 1 0.4 0.3 0
494 1 0.35 0.25 0.1
537 1 0.4 0.3 0.1
98 1 0.45 0.25 0
102 1 0.55 0.25 0
104 1 0.5 0.25 0.05
139 1 0.45 0.3 0.05
141 1 0.5 0.3 0
143 1 0.55 0.3 0.05
498 1 0.45 0.25 0.1
502 1 0.55 0.25 0.1
541 1 0.5 0.3 0.1
106 1 0.65 0.25 0
108 1 0.6 0.25 0.05
145 1 0.6 0.3 0
147 1 0.65 0.3 0.05
506 1 0.65 0.25 0.1
545 1 0.6 0.3 0.1
110 1 0.75 0.25 0
112 1 0.7 0.25 0.05
149 1 0.7 0.3 0
151 1 0.75 0.3 0.05
510 1 0.75 0.25 0.1
549 1 0.7 0.3 0.1
114 1 0.85 0.25 0
116 1 0.8 0.25 0.05
153 1 0.8 0.3 0
155 1 0.85 0.3 0.05
514 1 0.85 0.25 0.1
553 1 0.8 0.3 0.1
118 1 0.95 0.25 0
120 1 0.9 0.25 0.05
157 1 0.9 0.3 0
159 1 0.95 0.3 0.05
518 1 0.95 0.25 0.1
557 1 0.9 0.3 0.1
122 1 0.05 0.35 0
124 1 0 0.35 0.05
128 1 0.1 0.35 0.05
161 1 0 0.4 0
163 1 0.05 0.4 0.05
165 1 0.1 0.4 0
522 1 0.05 0.35 0.1
561 1 0 0.4 0.1
565 1 0.1 0.4 0.1
126 1 0.15 0.35 0
132 1 0.2 0.35 0.05
167 1 0.15 0.4 0.05
169 1 0.2 0.4 0
526 1 0.15 0.35 0.1
569 1 0.2 0.4 0.1
130 1 0.25 0.35 0
136 1 0.3 0.35 0.05
171 1 0.25 0.4 0.05
173 1 0.3 0.4 0
530 1 0.25 0.35 0.1
573 1 0.3 0.4 0.1
134 1 0.35 0.35 0
140 1 0.4 0.35 0.05
175 1 0.35 0.4 0.05
177 1 0.4 0.4 0
534 1 0.35 0.35 0.1
577 1 0.4 0.4 0.1
138 1 0.45 0.35 0
142 1 0.55 0.35 0
144 1 0.5 0.35 0.05
179 1 0.45 0.4 0.05
181 1 0.5 0.4 0
183 1 0.55 0.4 0.05
538 1 0.45 0.35 0.1
542 1 0.55 0.35 0.1
581 1 0.5 0.4 0.1
146 1 0.65 0.35 0
148 1 0.6 0.35 0.05
185 1 0.6 0.4 0
187 1 0.65 0.4 0.05
546 1 0.65 0.35 0.1
585 1 0.6 0.4 0.1
150 1 0.75 0.35 0
152 1 0.7 0.35 0.05
189 1 0.7 0.4 0
191 1 0.75 0.4 0.05
550 1 0.75 0.35 0.1
589 1 0.7 0.4 0.1
154 1 0.85 0.35 0
156 1 0.8 0.35 0.05
193 1 0.8 0.4 0
195 1 0.85 0.4 0.05
554 1 0.85 0.35 0.1
593 1 0.8 0.4 0.1
158 1 0.95 0.35 0
160 1 0.9 0.35 0.05
197 1 0.9 0.4 0
199 1 0.95 0.4 0.05
558 1 0.95 0.35 0.1
597 1 0.9 0.4 0.1
162 1 0.05 0.45 0
164 1 0 0.45 0.05
168 1 0.1 0.45 0.05
201 1 0 0.5 0
202 1 0.05 0.55 0
203 1 0.05 0.5 0.05
204 1 0 0.55 0.05
205 1 0.1 0.5 0
208 1 0.1 0.55 0.05
562 1 0.05 0.45 0.1
601 1 0 0.5 0.1
602 1 0.05 0.55 0.1
605 1 0.1 0.5 0.1
166 1 0.15 0.45 0
172 1 0.2 0.45 0.05
206 1 0.15 0.55 0
207 1 0.15 0.5 0.05
209 1 0.2 0.5 0
212 1 0.2 0.55 0.05
566 1 0.15 0.45 0.1
606 1 0.15 0.55 0.1
609 1 0.2 0.5 0.1
170 1 0.25 0.45 0
176 1 0.3 0.45 0.05
210 1 0.25 0.55 0
211 1 0.25 0.5 0.05
213 1 0.3 0.5 0
216 1 0.3 0.55 0.05
570 1 0.25 0.45 0.1
610 1 0.25 0.55 0.1
613 1 0.3 0.5 0.1
174 1 0.35 0.45 0
180 1 0.4 0.45 0.05
214 1 0.35 0.55 0
215 1 0.35 0.5 0.05
217 1 0.4 0.5 0
220 1 0.4 0.55 0.05
574 1 0.35 0.45 0.1
614 1 0.35 0.55 0.1
617 1 0.4 0.5 0.1
178 1 0.45 0.45 0
182 1 0.55 0.45 0
184 1 0.5 0.45 0.05
218 1 0.45 0.55 0
219 1 0.45 0.5 0.05
221 1 0.5 0.5 0
222 1 0.55 0.55 0
223 1 0.55 0.5 0.05
224 1 0.5 0.55 0.05
578 1 0.45 0.45 0.1
582 1 0.55 0.45 0.1
618 1 0.45 0.55 0.1
621 1 0.5 0.5 0.1
622 1 0.55 0.55 0.1
186 1 0.65 0.45 0
188 1 0.6 0.45 0.05
225 1 0.6 0.5 0
226 1 0.65 0.55 0
227 1 0.65 0.5 0.05
228 1 0.6 0.55 0.05
586 1 0.65 0.45 0.1
625 1 0.6 0.5 0.1
626 1 0.65 0.55 0.1
190 1 0.75 0.45 0
192 1 0.7 0.45 0.05
229 1 0.7 0.5 0
230 1 0.75 0.55 0
231 1 0.75 0.5 0.05
232 1 0.7 0.55 0.05
590 1 0.75 0.45 0.1
629 1 0.7 0.5 0.1
630 1 0.75 0.55 0.1
194 1 0.85 0.45 0
196 1 0.8 0.45 0.05
233 1 0.8 0.5 0
234 1 0.85 0.55 0
235 1 0.85 0.5 0.05
236 1 0.8 0.55 0.05
594 1 0.85 0.45 0.1
633 1 0.8 0.5 0.1
634 1 0.85 0.55 0.1
198 1 0.95 0.45 0
200 1 0.9 0.45 0.05
237 1 0.9 0.5 0
238 1 0.95 0.55 0
239 1 0.95 0.5 0.05
240 1 0.9 0.55 0.05
598 1 0.95 0.45 0.1
637 1 0.9 0.5 0.1
638 1 0.95 0.55 0.1
241 1 0 0.6 0
242 1 0.05 0.65 0
243 1 0.05 0.6 0.05
244 1 0 0.65 0.05
245 1 0.1 0.6 0
248 1 0.1 0.65 0.05
641 1 0 0.6 0.1
642 1 0.05 0.65 0.1
645 1 0.1 0.6 0.1
246 1 0.15 0.65 0
247 1 0.15 0.6 0.05
249 1 0.2 0.6 0
252 1 0.2 0.65 0.05
646 1 0.15 0.65 0.1
649 1 0.2 0.6 0.1
250 1 0.25 0.65 0
251 1 0.25 0.6 0.05
253 1 0.3 0.6 0
256 1 0.3 0.65 0.05
650 1 0.25 0.65 0.1
653 1 0.3 0.6 0.1
254 1 0.35 0.65 0
255 1 0.35 0.6 0.05
257 1 0.4 0.6 0
260 1 0.4 0.65 0.05
654 1 0.35 0.65 0.1
657 1 0.4 0.6 0.1
258 1 0.45 0.65 0
259 1 0.45 0.6 0.05
261 1 0.5 0.6 0
262 1 0.55 0.65 0
263 1 0.55 0.6 0.05
264 1 0.5 0.65 0.05
658 1 0.45 0.65 0.1
661 1 0.5 0.6 0.1
662 1 0.55 0.65 0.1
265 1 0.6 0.6 0
266 1 0.65 0.65 0
267 1 0.65 0.6 0.05
268 1 0.6 0.65 0.05
665 1 0.6 0.6 0.1
666 1 0.65 0.65 0.1
269 1 0.7 0.6 0
270 1 0.75 0.65 0
271 1 0.75 0.6 0.05
272 1 0.7 0.65 0.05
669 1 0.7 0.6 0.1
670 1 0.75 0.65 0.1
273 1 0.8 0.6 0
274 1 0.85 0.65 0
275 1 0.85 0.6 0.05
276 1 0.8 0.65 0.05
673 1 0.8 0.6 0.1
674 1 0.85 0.65 0.1
277 1 0.9 0.6 0
278 1 0.95 0.65 0
279 1 0.95 0.6 0.05
280 1 0.9 0.65 0.05
677 1 0.9 0.6 0.1
678 1 0.95 0.65 0.1
281 1 0 0.7 0
282 1 0.05 0.75 0
283 1 0.05 0.7 0.05
284 1 0 0.75 0.05
285 1 0.1 0.7 0
288 1 0.1 0.75 0.05
681 1 0 0.7 0.1
682 1 0.05 0.75 0.1
685 1 0.1 0.7 0.1
286 1 0.15 0.75 0
287 1 0.15 0.7 0.05
289 1 0.2 0.7 0
292 1 0.2 0.75 0.05
686 1 0.15 0.75 0.1
689 1 0.2 0.7 0.1
290 1 0.25 0.75 0
291 1 0.25 0.7 0.05
293 1 0.3 0.7 0
296 1 0.3 0.75 0.05
690 1 0.25 0.75 0.1
693 1 0.3 0.7 0.1
294 1 0.35 0.75 0
295 1 0.35 0.7 0.05
297 1 0.4 0.7 0
300 1 0.4 0.75 0.05
694 1 0.35 0.75 0.1
697 1 0.4 0.7 0.1
298 1 0.45 0.75 0
299 1 0.45 0.7 0.05
301 1 0.5 0.7 0
302 1 0.55 0.75 0
303 1 0.55 0.7 0.05
304 1 0.5 0.75 0.05
698 1 0.45 0.75 0.1
701 1 0.5 0.7 0.1
702 1 0.55 0.75 0.1
305 1 0.6 0.7 0
306 1 0.65 0.75 0
307 1 0.65 0.7 0.05
308 1 0.6 0.75 0.05
705 1 0.6 0.7 0.1
706 1 0.65 0.75 0.1
309 1 0.7 0.7 0
310 1 0.75 0.75 0
311 1 0.75 0.7 0.05
312 1 0.7 0.75 0.05
709 1 0.7 0.7 0.1
710 1 0.75 0.75 0.1
313 1 0.8 0.7 0
314 1 0.85 0.75 0
315 1 0.85 0.7 0.05
316 1 0.8 0.75 0.05
713 1 0.8 0.7 0.1
714 1 0.85 0.75 0.1
317 1 0.9 0.7 0
318 1 0.95 0.75 0
319 1 0.95 0.7 0.05
320 1 0.9 0.75 0.05
717 1 0.9 0.7 0.1
718 1 0.95 0.75 0.1
321 1 0 0.8 0
322 1 0.05 0.85 0
323 1 0.05 0.8 0.05
324 1 0 0.85 0.05
325 1 0.1 0.8 0
328 1 0.1 0.85 0.05
721 1 0 0.8 0.1
722 1 0.05 0.85 0.1
725 1 0.1 0.8 0.1
326 1 0.15 0.85 0
327 1 0.15 0.8 0.05
329 1 0.2 0.8 0
332 1 0.2 0.85 0.05
726 1 0.15 0.85 0.1
729 1 0.2 0.8 0.1
330 1 0.25 0.85 0
331 1 0.25 0.8 0.05
333 1 0.3 0.8 0
336 1 0.3 0.85 0.05
730 1 0.25 0.85 0.1
733 1 0.3 0.8 0.1
334 1 0.35 0.85 0
335 1 0.35 0.8 0.05
337 1 0.4 0.8 0
340 1 0.4 0.85 0.05
734 1 0.35 0.85 0.1
737 1 0.4 0.8 0.1
338 1 0.45 0.85 0
339 1 0.45 0.8 0.05
341 1 0.5 0.8 0
342 1 0.55 0.85 0
343 1 0.55 0.8 0.05
344 1 0.5 0.85 0.05
738 1 0.45 0.85 0.1
741 1 0.5 0.8 0.1
742 1 0.55 0.85 0.1
345 1 0.6 0.8 0
346 1 0.65 0.85 0
347 1 0.65 0.8 0.05
348 1 0.6 0.85 0.05
745 1 0.6 0.8 0.1
746 1 0.65 0.85 0.1
349 1 0.7 0.8 0
350 1 0.75 0.85 0
351 1 0.75 0.8 0.05
352 1 0.7 0.85 0.05
749 1 0.7 0.8 0.1
750 1 0.75 0.85 0.1
353 1 0.8 0.8 0
354 1 0.85 0.85 0
355 1 0.85 0.8 0.05
356 1 0.8 0.85 0.05
753 1 0.8 0.8 0.1
754 1 0.85 0.85 0.1
357 1 0.9 0.8 0
358 1 0.95 0.85 0
359 1 0.95 0.8 0.05
360 1 0.9 0.85 0.05
757 1 0.9 0.8 0.1
758 1 0.95 0.85 0.1
361 1 0 0.9 0
362 1 0.05 0.95 0
363 1 0.05 0.9 0.05
364 1 0 0.95 0.05
365 1 0.1 0.9 0
368 1 0.1 0.95 0.05
761 1 0 0.9 0.1
762 1 0.05 0.95 0.1
765 1 0.1 0.9 0.1
366 1 0.15 0.95 0
367 1 0.15 0.9 0.05
369 1 0.2 0.9 0
372 1 0.2 0.95 0.05
766 1 0.15 0.95 0.1
769 1 0.2 0.9 0.1
370 1 0.25 0.95 0
371 1 0.25 0.9 0.05
373 1 0.3 0.9 0
376 1 0.3 0.95 0.05
770 1 0.25 0.95 0.1
773 1 0.3 0.9 0.1
374 1 0.35 0.95 0
375 1 0.35 0.9 0.05
377 1 0.4 0.9 0
380 1 0.4 0.95 0.05
774 1 0.35 0.95 0.1
777 1 0.4 0.9 0.1
378 1 0.45 0.95 0
379 1 0.45 0.9 0.05
381 1 0.5 0.9 0
382 1 0.55 0.95 0
383 1 0.55 0.9 0.05
384 1 0.5 0.95 0.05
778 1 0.45 0.95 0.1
781 1 0.5 0.9 0.1
782 1 0.55 0.95 0.1
385 1 0.6 0.9 0
386 1 0.65 0.95 0
387 1 0.65 0.9 0.05
388 1 0.6 0.95 0.05
785 1 0.6 0.9 0.1
786 1 0.65 0.95 0.1
389 1 0.7 0.9 0
390 1 0.75 0.95 0
391 1 0.75 0.9 0.05
392 1 0.7 0.95 0.05
789 1 0.7 0.9 0.1
790 1 0.75 0.95 0.1
393 1 0.8 0.9 0
394 1 0.85 0.95 0
395 1 0.85 0.9 0.05
396 1 0.8 0.95 0.05
793 1 0.8 0.9 0.1
794 1 0.85 0.95 0.1
397 1 0.9 0.9 0
398 1 0.95 0.95 0
399 1 0.95 0.9 0.05
400 1 0.9 0.95 0.05
797 1 0.9 0.9 0.1
798 1 0.95 0.95 0.1
403 1 0.05 0 0.15
404 1 0 0.05 0.15
408 1 0.1 0.05 0.15
443 1 0.05 0.1 0.15
801 1 0 0 0.2
802 1 0.05 0.05 0.2
805 1 0.1 0 0.2
841 1 0 0.1 0.2
845 1 0.1 0.1 0.2
407 1 0.15 0 0.15
412 1 0.2 0.05 0.15
447 1 0.15 0.1 0.15
806 1 0.15 0.05 0.2
809 1 0.2 0 0.2
849 1 0.2 0.1 0.2
411 1 0.25 0 0.15
416 1 0.3 0.05 0.15
451 1 0.25 0.1 0.15
810 1 0.25 0.05 0.2
813 1 0.3 0 0.2
853 1 0.3 0.1 0.2
415 1 0.35 0 0.15
420 1 0.4 0.05 0.15
455 1 0.35 0.1 0.15
814 1 0.35 0.05 0.2
817 1 0.4 0 0.2
857 1 0.4 0.1 0.2
419 1 0.45 0 0.15
423 1 0.55 0 0.15
424 1 0.5 0.05 0.15
459 1 0.45 0.1 0.15
463 1 0.55 0.1 0.15
818 1 0.45 0.05 0.2
821 1 0.5 0 0.2
822 1 0.55 0.05 0.2
861 1 0.5 0.1 0.2
427 1 0.65 0 0.15
428 1 0.6 0.05 0.15
467 1 0.65 0.1 0.15
825 1 0.6 0 0.2
826 1 0.65 0.05 0.2
865 1 0.6 0.1 0.2
431 1 0.75 0 0.15
432 1 0.7 0.05 0.15
471 1 0.75 0.1 0.15
829 1 0.7 0 0.2
830 1 0.75 0.05 0.2
869 1 0.7 0.1 0.2
435 1 0.85 0 0.15
436 1 0.8 0.05 0.15
475 1 0.85 0.1 0.15
833 1 0.8 0 0.2
834 1 0.85 0.05 0.2
873 1 0.8 0.1 0.2
439 1 0.95 0 0.15
440 1 0.9 0.05 0.15
479 1 0.95 0.1 0.15
837 1 0.9 0 0.2
838 1 0.95 0.05 0.2
877 1 0.9 0.1 0.2
444 1 0 0.15 0.15
448 1 0.1 0.15 0.15
483 1 0.05 0.2 0.15
842 1 0.05 0.15 0.2
881 1 0 0.2 0.2
885 1 0.1 0.2 0.2
452 1 0.2 0.15 0.15
487 1 0.15 0.2 0.15
846 1 0.15 0.15 0.2
889 1 0.2 0.2 0.2
456 1 0.3 0.15 0.15
491 1 0.25 0.2 0.15
850 1 0.25 0.15 0.2
893 1 0.3 0.2 0.2
460 1 0.4 0.15 0.15
495 1 0.35 0.2 0.15
854 1 0.35 0.15 0.2
897 1 0.4 0.2 0.2
464 1 0.5 0.15 0.15
499 1 0.45 0.2 0.15
503 1 0.55 0.2 0.15
858 1 0.45 0.15 0.2
862 1 0.55 0.15 0.2
901 1 0.5 0.2 0.2
468 1 0.6 0.15 0.15
507 1 0.65 0.2 0.15
866 1 0.65 0.15 0.2
905 1 0.6 0.2 0.2
472 1 0.7 0.15 0.15
511 1 0.75 0.2 0.15
870 1 0.75 0.15 0.2
909 1 0.7 0.2 0.2
476 1 0.8 0.15 0.15
515 1 0.85 0.2 0.15
874 1 0.85 0.15 0.2
913 1 0.8 0.2 0.2
480 1 0.9 0.15 0.15
519 1 0.95 0.2 0.15
878 1 0.95 0.15 0.2
917 1 0.9 0.2 0.2
484 1 0 0.25 0.15
488 1 0.1 0.25 0.15
523 1 0.05 0.3 0.15
882 1 0.05 0.25 0.2
921 1 0 0.3 0.2
925 1 0.1 0.3 0.2
492 1 0.2 0.25 0.15
527 1 0.15 0.3 0.15
886 1 0.15 0.25 0.2
929 1 0.2 0.3 0.2
496 1 0.3 0.25 0.15
531 1 0.25 0.3 0.15
890 1 0.25 0.25 0.2
933 1 0.3 0.3 0.2
500 1 0.4 0.25 0.15
535 1 0.35 0.3 0.15
894 1 0.35 0.25 0.2
937 1 0.4 0.3 0.2
504 1 0.5 0.25 0.15
539 1 0.45 0.3 0.15
543 1 0.55 0.3 0.15
898 1 0.45 0.25 0.2
902 1 0.55 0.25 0.2
941 1 0.5 0.3 0.2
508 1 0.6 0.25 0.15
547 1 0.65 0.3 0.15
906 1 0.65 0.25 0.2
945 1 0.6 0.3 0.2
512 1 0.7 0.25 0.15
551 1 0.75 0.3 0.15
910 1 0.75 0.25 0.2
949 1 0.7 0.3 0.2
516 1 0.8 0.25 0.15
555 1 0.85 0.3 0.15
914 1 0.85 0.25 0.2
953 1 0.8 0.3 0.2
520 1 0.9 0.25 0.15
559 1 0.95 0.3 0.15
918 1 0.95 0.25 0.2
957 1 0.9 0.3 0.2
524 1 0 0.35 0.15
528 1 0.1 0.35 0.15
563 1 0.05 0.4 0.15
922 1 0.05 0.35 0.2
961 1 0 0.4 0.2
965 1 0.1 0.4 0.2
532 1 0.2 0.35 0.15
567 1 0.15 0.4 0.15
926 1 0.15 0.35 0.2
969 1 0.2 0.4 0.2
536 1 0.3 0.35 0.15
571 1 0.25 0.4 0.15
930 1 0.25 0.35 0.2
973 1 0.3 0.4 0.2
540 1 0.4 0.35 0.15
575 1 0.35 0.4 0.15
934 1 0.35 0.35 0.2
977 1 0.4 0.4 0.2
544 1 0.5 0.35 0.15
579 1 0.45 0.4 0.15
583 1 0.55 0.4 0.15
938 1 0.45 0.35 0.2
942 1 0.55 0.35 0.2
981 1 0.5 0.4 0.2
548 1 0.6 0.35 0.15
587 1 0.65 0.4 0.15
946 1 0.65 0.35 0.2
985 1 0.6 0.4 0.2
552 1 0.7 0.35 0.15
591 1 0.75 0.4 0.15
950 1 0.75 0.35 0.2
989 1 0.7 0.4 0.2
556 1 0.8 0.35 0.15
595 1 0.85 0.4 0.15
954 1 0.85 0.35 0.2
993 1 0.8 0.4 0.2
560 1 0.9 0.35 0.15
599 1 0.95 0.4 0.15
958 1 0.95 0.35 0.2
997 1 0.9 0.4 0.2
564 1 0 0.45 0.15
568 1 0.1 0.45 0.15
603 1 0.05 0.5 0.15
604 1 0 0.55 0.15
608 1 0.1 0.55 0.15
962 1 0.05 0.45 0.2
1001 1 0 0.5 0.2
1002 1 0.05 0.55 0.2
1005 1 0.1 0.5 0.2
572 1 0.2 0.45 0.15
607 1 0.15 0.5 0.15
612 1 0.2 0.55 0.15
966 1 0.15 0.45 0.2
1006 1 0.15 0.55 0.2
1009 1 0.2 0.5 0.2
576 1 0.3 0.45 0.15
611 1 0.25 0.5 0.15
616 1 0.3 0.55 0.15
970 1 0.25 0.45 0.2
1010 1 0.25 0.55 0.2
1013 1 0.3 0.5 0.2
580 1 0.4 0.45 0.15
615 1 0.35 0.5 0.15
620 1 0.4 0.55 0.15
974 1 0.35 0.45 0.2
1014 1 0.35 0.55 0.2
1017 1 0.4 0.5 0.2
584 1 0.5 0.45 0.15
619 1 0.45 0.5 0.15
623 1 0.55 0.5 0.15
624 1 0.5 0.55 0.15
978 1 0.45 0.45 0.2
982 1 0.55 0.45 0.2
1018 1 0.45 0.55 0.2
1021 1 0.5 0.5 0.2
1022 1 0.55 0.55 0.2
588 1 0.6 0.45 0.15
627 1 0.65 0.5 0.15
628 1 0.6 0.55 0.15
986 1 0.65 0.45 0.2
1025 1 0.6 0.5 0.2
1026 1 0.65 0.55 0.2
592 1 0.7 0.45 0.15
631 1 0.75 0.5 0.15
632 1 0.7 0.55 0.15
990 1 0.75 0.45 0.2
1029 1 0.7 0.5 0.2
1030 1 0.75 0.55 0.2
596 1 0.8 0.45 0.15
635 1 0.85 0.5 0.15
636 1 0.8 0.55 0.15
994 1 0.85 0.45 0.2
1033 1 0.8 0.5 0.2
1034 1 0.85 0.55 0.2
600 1 0.9 0.45 0.15
639 1 0.95 0.5 0.15
640 1 0.9 0.55 0.15
998 1 0.95 0.45 0.2
1037 1 0.9 0.5 0.2
1038 1 0.95 0.55 0.2
643 1 0.05 0.6 0.15
644 1 0 0.65 0.15
648 1 0.1 0.65 0.15
1041 1 0 0.6 0.2
1042 1 0.05 0.65 0.2
1045 1 0.1 0.6 0.2
647 1 0.15 0.6 0.15
652 1 0.2 0.65 0.15
1046 1 0.15 0.65 0.2
1049 1 0.2 0.6 0.2
651 1 0.25 0.6 0.15
656 1 0.3 0.65 0.15
1050 1 0.25 0.65 0.2
1053 1 0.3 0.6 0.2
655 1 0.35 0.6 0.15
660 1 0.4 0.65 0.15
1054 1 0.35 0.65 0.2
1057 1 0.4 0.6 0.2
659 1 0.45 0.6 0.15
663 1 0.55 0.6 0.15
664 1 0.5 0.65 0.15
1058 1 0.45 0.65 0.2
1061 1 0.5 0.6 0.2
1062 1 0.55 0.65 0.2
667 1 0.65 0.6 0.15
668 1 0.6 0.65 0.15
1065 1 0.6 0.6 0.2
1066 1 0.65 0.65 0.2
671 1 0.75 0.6 0.15
672 1 0.7 0.65 0.15
1069 1 0.7 0.6 0.2
1070 1 0.75 0.65 0.2
675 1 0.85 0.6 0.15
676 1 0.8 0.65 0.15
1073 1 0.8 0.6 0.2
1074 1 0.85 0.65 0.2
679 1 0.95 0.6 0.15
680 1 0.9 0.65 0.15
1077 1 0.9 0.6 0.2
1078 1 0.95 0.65 0.2
683 1 0.05 0.7 0.15
684 1 0 0.75 0.15
688 1 0.1 0.75 0.15
1081 1 0 0.7 0.2
1082 1 0.05 0.75 0.2
1085 1 0.1 0.7 0.2
687 1 0.15 0.7 0.15
692 1 0.2 0.75 0.15
1086 1 0.15 0.75 0.2
1089 1 0.2 0.7 0.2
691 1 0.25 0.7 0.15
696 1 0.3 0.75 0.15
1090 1 0.25 0.75 0.2
1093 1 0.3 0.7 0.2
695 1 0.35 0.7 0.15
700 1 0.4 0.75 0.15
1094 1 0.35 0.75 0.2
1097 1 0.4 0.7 0.2
699 1 0.45 0.7 0.15
703 1 0.55 0.7 0.15
704 1 0.5 0.75 0.15
1098 1 0.45 0.75 0.2
1101 1 0.5 0.7 0.2
1102 1 0.55 0.75 0.2
707 1 0.65 0.7 0.15
708 1 0.6 0.75 0.15
1105 1 0.6 0.7 0.2
1106 1 0.65 0.75 0.2
711 1 0.75 0.7 0.15
712 1 0.7 0.75 0.15
1109 1 0.7 0.7 0.2
1110 1 0.75 0.75 0.2
715 1 0.85 0.7 0.15
716 1 0.8 0.75 0.15
1113 1 0.8 0.7 0.2
1114 1 0.85 0.75 0.2
719 1 0.95 0.7 0.15
720 1 0.9 0.75 0.15
1117 1 0.9 0.7 0.2
1118 1 0.95 0.75 0.2
723 1 0.05 0.8 0.15
724 1 0 0.85 0.15
728 1 0.1 0.85 0.15
1121 1 0 0.8 0.2
1122 1 0.05 0.85 0.2
1125 1 0.1 0.8 0.2
727 1 0.15 0.8 0.15
732 1 0.2 0.85 0.15
1126 1 0.15 0.85 0.2
1129 1 0.2 0.8 0.2
731 1 0.25 0.8 0.15
736 1 0.3 0.85 0.15
1130 1 0.25 0.85 0.2
1133 1 0.3 0.8 0.2
735 1 0.35 0.8 0.15
740 1 0.4 0.85 0.15
1134 1 0.35 0.85 0.2
1137 1 0.4 0.8 0.2
739 1 0.45 0.8 0.15
743 1 0.55 0.8 0.15
744 1 0.5 0.85 0.15
1138 1 0.45 0.85 0.2
1141 1 0.5 0.8 0.2
1142 1 0.55 0.85 0.2
747 1 0.65 0.8 0.15
748 1 0.6 0.85 0.15
1145 1 0.6 0.8 0.2
1146 1 0.65 0.85 0.2
751 1 0.75 0.8 0.15
752 1 0.7 0.85 0.15
1149 1 0.7 0.8 0.2
1150 1 0.75 0.85 0.2
755 1 0.85 0.8 0.15
756 1 0.8 0.85 0.15
1153 1 0.8 0.8 0.2
1154 1 0.85 0.85 0.2
759 1 0.95 0.8 0.15
760 1 0.9 0.85 0.15
1157 1 0.9 0.8 0.2
1158 1 0.95 0.85 0.2
763 1 0.05 0.9 0.15
764 1 0 0.95 0.15
768 1 0.1 0.95 0.15
1161 1 0 0.9 0.2
1162 1 0.05 0.95 0.2
1165 1 0.1 0.9 0.2
767 1 0.15 0.9 0.15
772 1 0.2 0.95 0.15
1166 1 0.15 0.95 0.2
1169 1 0.2 0.9 0.2
771 1 0.25 0.9 0.15
776 1 0.3 0.95 0.15
1170 1 0.25 0.95 0.2
1173 1 0.3 0.9 0.2
775 1 0.35 0.9 0.15
780 1 0.4 0.95 0.15
1174 1 0.35 0.95 0.2
1177 1 0.4 0.9 0.2
779 1 0.45 0.9 0.15
783 1 0.55 0.9 0.15
784 1 0.5 0.95 0.15
1178 1 0.45 0.95 0.2
1181 1 0.5 0.9 0.2
1182 1 0.55 0.95 0.2
787 1 0.65 0.9 0.15
788 1 0.6 0.95 0.15
1185 1 0.6 0.9 0.2
1186 1 0.65 0.95 0.2
791 1 0.75 0.9 0.15
792 1 0.7 0.95 0.15
1189 1 0.7 0.9 0.2
1190 1 0.75 0.95 0.2
795 1 0.85 0.9 0.15
796 1 0.8 0.95 0.15
1193 1 0.8 0.9 0.2
1194 1 0.85 0.95 0.2
799 1 0.95 0.9 0.15
800 1 0.9 0.95 0.15
1197 1 0.9 0.9 0.2
1198 1 0.95 0.95 0.2
803 1 0.05 0 0.25
804 1 0 0.05 0.25
808 1 0.1 0.05 0.25
843 1 0.05 0.1 0.25
1201 1 0 0 0.3
1202 1 0.05 0.05 0.3
1205 1 0.1 0 0.3
1241 1 0 0.1 0.3
1245 1 0.1 0.1 0.3
807 1 0.15 0 0.25
812 1 0.2 0.05 0.25
847 1 0.15 0.1 0.25
1206 1 0.15 0.05 0.3
1209 1 0.2 0 0.3
1249 1 0.2 0.1 0.3
811 1 0.25 0 0.25
816 1 0.3 0.05 0.25
851 1 0.25 0.1 0.25
1210 1 0.25 0.05 0.3
1213 1 0.3 0 0.3
1253 1 0.3 0.1 0.3
815 1 0.35 0 0.25
820 1 0.4 0.05 0.25
855 1 0.35 0.1 0.25
1214 1 0.35 0.05 0.3
1217 1 0.4 0 0.3
1257 1 0.4 0.1 0.3
819 1 0.45 0 0.25
823 1 0.55 0 0.25
824 1 0.5 0.05 0.25
859 1 0.45 0.1 0.25
863 1 0.55 0.1 0.25
1218 1 0.45 0.05 0.3
1221 1 0.5 0 0.3
1222 1 0.55 0.05 0.3
1261 1 0.5 0.1 0.3
827 1 0.65 0 0.25
828 1 0.6 0.05 0.25
867 1 0.65 0.1 0.25
1225 1 0.6 0 0.3
1226 1 0.65 0.05 0.3
1265 1 0.6 0.1 0.3
831 1 0.75 0 0.25
832 1 0.7 0.05 0.25
871 1 0.75 0.1 0.25
1229 1 0.7 0 0.3
1230 1 0.75 0.05 0.3
1269 1 0.7 0.1 0.3
835 1 0.85 0 0.25
836 1 0.8 0.05 0.25
875 1 0.85 0.1 0.25
1233 1 0.8 0 0.3
1234 1 0.85 0.05 0.3
1273 1 0.8 0.1 0.3
839 1 0.95 0 0.25
840 1 0.9 0.05 0.25
879 1 0.95 0.1 0.25
1237 1 0.9 0 0.3
1238 1 0.95 0.05 0.3
1277 1 0.9 0.1 0.3
844 1 0 0.15 0.25
848 1 0.1 0.15 0.25
883 1 0.05 0.2 0.25
1242 1 0.05 0.15 0.3
1281 1 0 0.2 0.3
1285 1 0.1 0.2 0.3
852 1 0.2 0.15 0.25
887 1 0.15 0.2 0.25
1246 1 0.15 0.15 0.3
1289 1 0.2 0.2 0.3
856 1 0.3 0.15 0.25
891 1 0.25 0.2 0.25
1250 1 0.25 0.15 0.3
1293 1 0.3 0.2 0.3
860 1 0.4 0.15 0.25
895 1 0.35 0.2 0.25
1254 1 0.35 0.15 0.3
1297 1 0.4 0.2 0.3
864 1 0.5 0.15 0.25
899 1 0.45 0.2 0.25
903 1 0.55 0.2 0.25
1258 1 0.45 0.15 0.3
1262 1 0.55 0.15 0.3
1301 1 0.5 0.2 0.3
868 1 0.6 0.15 0.25
907 1 0.65 0.2 0.25
1266 1 0.65 0.15 0.3
1305 1 0.6 0.2 0.3
872 1 0.7 0.15 0.25
911 1 0.75 0.2 0.25
1270 1 0.75 0.15 0.3
1309 1 0.7 0.2 0.3
876 1 0.8 0.15 0.25
915 1 0.85 0.2 0.25
1274 1 0.85 0.15 0.3
1313 1 0.8 0.2 0.3
880 1 0.9 0.15 0.25
919 1 0.95 0.2 0.25
1278 1 0.95 0.15 0.3
1317 1 0.9 0.2 0.3
884 1 0 0.25 0.25
888 1 0.1 0.25 0.25
923 1 0.05 0.3 0.25
1282 1 0.05 0.25 0.3
1321 1 0 0.3 0.3
1325 1 0.1 0.3 0.3
892 1 0.2 0.25 0.25
927 1 0.15 0.3 0.25
1286 1 0.15 0.25 0.3
1329 1 0.2 0.3 0.3
896 1 0.3 0.25 0.25
931 1 0.25 0.3 0.25
1290 1 0.25 0.25 0.3
1333 1 0.3 0.3 0.3
900 1 0.4 0.25 0.25
935 1 0.35 0.3 0.25
1294 1 0.35 0.25 0.3
1337 1 0.4 0.3 0.3
904 1 0.5 0.25 0.25
939 1 0.45 0.3 0.25
943 1 0.55 0.3 0.25
1298 1 0.45 0.25 0.3
1302 1 0.55 0.25 0.3
1341 1 0.5 0.3 0.3
908 1 0.6 0.25 0.25
947 1 0.65 0.3 0.25
1306 1 0.65 0.25 0.3
1345 1 0.6 0.3 0.3
912 1 0.7 0.25 0.25
951 1 0.75 0.3 0.25
1310 1 0.75 0.25 0.3
1349 1 0.7 0.3 0.3
916 1 0.8 0.25 0.25
955 1 0.85 0.3 0.25
1314 1 0.85 0.25 0.3
1353 1 0.8 0.3 0.3
920 1 0.9 0.25 0.25
959 1 0.95 0.3 0.25
1318 1 0.95 0.25 0.3
1357 1 0.9 0.3 0.3
924 1 0 0.35 0.25
928 1 0.1 0.35 0.25
963 1 0.05 0.4 0.25
1322 1 0.05 0.35 0.3
1361 1 0 0.4 0.3
1365 1 0.1 0.4 0.3
932 1 0.2 0.35 0.25
967 1 0.15 0.4 0.25
1326 1 0.15 0.35 0.3
1369 1 0.2 0.4 0.3
936 1 0.3 0.35 0.25
971 1 0.25 0.4 0.25
1330 1 0.25 0.35 0.3
1373 1 0.3 0.4 0.3
940 1 0.4 0.35 0.25
975 1 0.35 0.4 0.25
1334 1 0.35 0.35 0.3
1377 1 0.4 0.4 0.3
944 1 0.5 0.35 0.25
979 1 0.45 0.4 0.25
983 1 0.55 0.4 0.25
1338 1 0.45 0.35 0.3
1342 1 0.55 0.35 0.3
1381 1 0.5 0.4 0.3
948 1 0.6 0.35 0.25
987 1 0.65 0.4 0.25
1346 1 0.65 0.35 0.3
1385 1 0.6 0.4 0.3
952 1 0.7 0.35 0.25
991 1 0.75 0.4 0.25
1350 1 0.75 0.35 0.3
1389 1 0.7 0.4 0.3
956 1 0.8 0.35 0.25
995 1 0.85 0.4 0.25
1354 1 0.85 0.35 0.3
1393 1 0.8 0.4 0.3
960 1 0.9 0.35 0.25
999 1 0.95 0.4 0.25
1358 1 0.95 0.35 0.3
1397 1 0.9 0.4 0.3
964 1 0 0.45 0.25
968 1 0.1 0.45 0.25
1003 1 0.05 0.5 0.25
1004 1 0 0.55 0.25
1008 1 0.1 0.55 0.25
1362 1 0.05 0.45 0.3
1401 1 0 0.5 0.3
1402 1 0.05 0.55 0.3
1405 1 0.1 0.5 0.3
972 1 0.2 0.45 0.25
1007 1 0.15 0.5 0.25
1012 1 0.2 0.55 0.25
1366 1 0.15 0.45 0.3
1406 1 0.15 0.55 0.3
1409 1 0.2 0.5 0.3
976 1 0.3 0.45 0.25
1011 1 0.25 0.5 0.25
1016 1 0.3 0.55 0.25
1370 1 0.25 0.45 0.3
1410 1 0.25 0.55 0.3
1413 1 0.3 0.5 0.3
980 1 0.4 0.45 0.25
1015 1 0.35 0.5 0.25
1020 1 0.4 0.55 0.25
1374 1 0.35 0.45 0.3
1414 1 0.35 0.55 0.3
1417 1 0.4 0.5 0.3
984 1 0.5 0.45 0.25
1019 1 0.45 0.5 0.25
1023 1 0.55 0.5 0.25
1024 1 0.5 0.55 0.25
1378 1 0.45 0.45 0.3
1382 1 0.55 0.45 0.3
1418 1 0.45 0.55 0.3
1421 1 0.5 0.5 0.3
1422 1 0.55 0.55 0.3
988 1 0.6 0.45 0.25
1027 1 0.65 0.5 0.25
1028 1 0.6 0.55 0.25
1386 1 0.65 0.45 0.3
1425 1 0.6 0.5 0.3
1426 1 0.65 0.55 0.3
992 1 0.7 0.45 0.25
1031 1 0.75 0.5 0.25
1032 1 0.7 0.55 0.25
1390 1 0.75 0.45 0.3
1429 1 0.7 0.5 0.3
1430 1 0.75 0.55 0.3
996 1 0.8 0.45 0.25
1035 1 0.85 0.5 0.25
1036 1 0.8 0.55 0.25
1394 1 0.85 0.45 0.3
1433 1 0.8 0.5 0.3
1434 1 0.85 0.55 0.3
1000 1 0.9 0.45 0.25
1039 1 0.95 0.5 0.25
1040 1 0.9 0.55 0.25
1398 1 0.95 0.45 0.3
1437 1 0.9 0.5 0.3
1438 1 0.95 0.55 0.3
1043 1 0.05 0.6 0.25
1044 1 0 0.65 0.25
1048 1 0.1 0.65 0.25
1441 1 0 0.6 0.3
1442 1 0.05 0.65 0.3
1445 1 0.1 0.6 0.3
1047 1 0.15 0.6 0.25
1052 1 0.2 0.65 0.25
1446 1 0.15 0.65 0.3
1449 1 0.2 0.6 0.3
1051 1 0.25 0.6 0.25
1056 1 0.3 0.65 0.25
1450 1 0.25 0.65 0.3
1453 1 0.3 0.6 0.3
1055 1 0.35 0.6 0.25
1060 1 0.4 0.65 0.25
1454 1 0.35 0.65 0.3
1457 1 0.4 0.6 0.3
1059 1 0.45 0.6 0.25
1063 1 0.55 0.6 0.25
1064 1 0.5 0.65 0.25
1458 1 0.45 0.65 0.3
1461 1 0.5 0.6 0.3
1462 1 0.55 0.65 0.3
1067 1 0.65 0.6 0.25
1068 1 0.6 0.65 0.25
1465 1 0.6 0.6 0.3
1466 1 0.65 0.65 0.3
1071 1 0.75 0.6 0.25
1072 1 0.7 0.65 0.25
1469 1 0.7 0.6 0.3
1470 1 0.75 0.65 0.3
1075 1 0.85 0.6 0.25
1076 1 0.8 0.65 0.25
1473 1 0.8 0.6 0.3
1474 1 0.85 0.65 0.3
1079 1 0.95 0.6 0.25
1080 1 0.9 0.65 0.25
1477 1 0.9 0.6 0.3
1478 1 0.95 0.65 0.3
1083 1 0.05 0.7 0.25
1084 1 0 0.75 0.25
1088 1 0.1 0.75 0.25
1481 1 0 0.7 0.3
1482 1 0.05 0.75 0.3
1485 1 0.1 0.7 0.3
1087 1 0.15 0.7 0.25
1092 1 0.2 0.75 0.25
1486 1 0.15 0.75 0.3
1489 1 0.2 0.7 0.3
1091 1 0.25 0.7 0.25
1096 1 0.3 0.75 0.25
1490 1 0.25 0.75 0.3
1493 1 0.3 0.7 0.3
1095 1 0.35 0.7 0.25
1100 1 0.4 0.75 0.25
1494 1 0.35 0.75 0.3
1497 1 0.4 0.7 0.3
1099 1 0.45 0.7 0.25
1103 1 0.55 0.7 0.25
1104 1 0.5 0.75 0.25
1498 1 0.45 0.75 0.3
1501 1 0.5 0.7 0.3
1502 1 0.55 0.75 0.3
1107 1 0.65 0.7 0.25
1108 1 0.6 0.75 0.25
1505 1 0.6 0.7 0.3
1506 1 0.65 0.75 0.3
1111 1 0.75 0.7 0.25
1112 1 0.7 0.75 0.25
1509 1 0.7 0.7 0.3
1510 1 0.75 0.75 0.3
1115 1 0.85 0.7 0.25
1116 1 0.8 0.75 0.25
1513 1 0.8 0.7 0.3
1514 1 0.85 0.75 0.3
1119 1 0.95 0.7 0.25
1120 1 0.9 0.75 0.25
1517 1 0.9 0.7 0.3
1518 1 0.95 0.75 0.3
1123 1 0.05 0.8 0.25
1124 1 0 0.85 0.25
1128 1 0.1 0.85 0.25
1521 1 0 0.8 0.3
1522 1 0.05 0.85 0.3
1525 1 0.1 0.8 0.3
1127 1 0.15 0.8 0.25
1132 1 0.2 0.85 0.25
1526 1 0.15 0.85 0.3
1529 1 0.2 0.8 0.3
1131 1 0.25 0.8 0.25
1136 1 0.3 0.85 0.25
1530 1 0.25 0.85 0.3
1533 1 0.3 0.8 0.3
1135 1 0.35 0.8 0.25
1140 1 0.4 0.85 0.25
1534 1 0.35 0.85 0.3
1537 1 0.4 0.8 0.3
1139 1 0.45 0.8 0.25
1143 1 0.55 0.8 0.25
1144 1 0.5 0.85 0.25
1538 1 0.45 0.85 0.3
1541 1 0.5 0.8 0.3
1542 1 0.55 0.85 0.3
1147 1 0.65 0.8 0.25
1148 1 0.6 0.85 0.25
1545 1 0.6 0.8 0.3
1546 1 0.65 0.85 0.3
1151 1 0.75 0.8 0.25
1152 1 0.7 0.85 0.25
1549 1 0.7 0.8 0.3
1550 1 0.75 0.85 0.3
1155 1 0.85 0.8 0.25
1156 1 0.8 0.85 0.25
1553 1 0.8 0.8 0.3
1554 1 0.85 0.85 0.3
1159 1 0.95 0.8 0.25
1160 1 0.9 0.85 0.25
1557 1 0.9 0.8 0.3
1558 1 0.95 0.85 0.3
1163 1 0.05 0.9 0.25
1164 1 0 0.95 0.25
1168 1 0.1 0.95 0.25
1561 1 0 0.9 0.3
1562 1 0.05 0.95 0.3
1565 1 0.1 0.9 0.3
1167 1 0.15 0.9 0.25
1172 1 0.2 0.95 0.25
1566 1 0.15 0.95 0.3
1569 1 0.2 0.9 0.3
1171 1 0.25 0.9 0.25
1176 1 0.3 0.95 0.25
1570 1 0.25 0.95 0.3
1573 1 0.3 0.9 0.3
1175 1 0.35 0.9 0.25
1180 1 0.4 0.95 0.25
1574 1 0.35 0.95 0.3
1577 1 0.4 0.9 0.3
1179 1 0.45 0.9 0.25
1183 1 0.55 0.9 0.25
1184 1 0.5 0.95 0.25
1578 1 0.45 0.95 0.3
1581 1 0.5 0.9 0.3
1582 1 0.55 0.95 0.3
1187 1 0.65 0.9 0.25
1188 1 0.6 0.95 0.25
1585 1 0.6 0.9 0.3
1586 1 0.65 0.95 0.3
1191 1 0.75 0.9 0.25
1192 1 0.7 0.95 0.25
1589 1 0.7 0.9 0.3
1590 1 0.75 0.95 0.3
1195 1 0.85 0.9 0.25
1196 1 0.8 0.95 0.25
1593 1 0.8 0.9 0.3
1594 1 0.85 0.95 0.3
1199 1 0.95 0.9 0.25
1200 1 0.9 0.95 0.25
1597 1 0.9 0.9 0.3
1598 1 0.95 0.95 0.3
1203 1 0.05 0 0.35
1204 1 0 0.05 0.35
1208 1 0.1 0.05 0.35
1243 1 0.05 0.1 0.35
1601 1 0 0 0.4
1602 1 0.05 0.05 0.4
1605 1 0.1 0 0.4
1641 1 0 0.1 0.4
1645 1 0.1 0.1 0.4
1207 1 0.15 0 0.35
1212 1 0.2 0.05 0.35
1247 1 0.15 0.1 0.35
1606 1 0.15 0.05 0.4
1609 1 0.2 0 0.4
1649 1 0.2 0.1 0.4
1211 1 0.25 0 0.35
1216 1 0.3 0.05 0.35
1251 1 0.25 0.1 0.35
1610 1 0.25 0.05 0.4
1613 1 0.3 0 0.4
1653 1 0.3 0.1 0.4
1215 1 0.35 0 0.35
1220 1 0.4 0.05 0.35
1255 1 0.35 0.1 0.35
1614 1 0.35 0.05 0.4
1617 1 0.4 0 0.4
1657 1 0.4 0.1 0.4
1219 1 0.45 0 0.35
1223 1 0.55 0 0.35
1224 1 0.5 0.05 0.35
1259 1 0.45 0.1 0.35
1263 1 0.55 0.1 0.35
1618 1 0.45 0.05 0.4
1621 1 0.5 0 0.4
1622 1 0.55 0.05 0.4
1661 1 0.5 0.1 0.4
1227 1 0.65 0 0.35
1228 1 0.6 0.05 0.35
1267 1 0.65 0.1 0.35
1625 1 0.6 0 0.4
1626 1 0.65 0.05 0.4
1665 1 0.6 0.1 0.4
1231 1 0.75 0 0.35
1232 1 0.7 0.05 0.35
1271 1 0.75 0.1 0.35
1629 1 0.7 0 0.4
1630 1 0.75 0.05 0.4
1669 1 0.7 0.1 0.4
1235 1 0.85 0 0.35
1236 1 0.8 0.05 0.35
1275 1 0.85 0.1 0.35
1633 1 0.8 0 0.4
1634 1 0.85 0.05 0.4
1673 1 0.8 0.1 0.4
1239 1 0.95 0 0.35
1240 1 0.9 0.05 0.35
1279 1 0.95 0.1 0.35
1637 1 0.9 0 0.4
1638 1 0.95 0.05 0.4
1677 1 0.9 0.1 0.4
1244 1 0 0.15 0.35
1248 1 0.1 0.15 0.35
1283 1 0.05 0.2 0.35
1642 1 0.05 0.15 0.4
1681 1 0 0.2 0.4
1685 1 0.1 0.2 0.4
1252 1 0.2 0.15 0.35
1287 1 0.15 0.2 0.35
1646 1 0.15 0.15 0.4
1689 1 0.2 0.2 0.4
1256 1 0.3 0.15 0.35
1291 1 0.25 0.2 0.35
1650 1 0.25 0.15 0.4
1693 1 0.3 0.2 0.4
1260 1 0.4 0.15 0.35
1295 1 0.35 0.2 0.35
1654 1 0.35 0.15 0.4
1697 1 0.4 0.2 0.4
1264 1 0.5 0.15 0.35
1299 1 0.45 0.2 0.35
1303 1 0.55 0.2 0.35
1658 1 0.45 0.15 0.4
1662 1 0.55 0.15 0.4
1701 1 0.5 0.2 0.4
1268 1 0.6 0.15 0.35
1307 1 0.65 0.2 0.35
1666 1 0.65 0.15 0.4
1705 1 0.6 0.2 0.4
1272 1 0.7 0.15 0.35
1311 1 0.75 0.2 0.35
1670 1 0.75 0.15 0.4
1709 1 0.7 0.2 0.4
1276 1 0.8 0.15 0.35
1315 1 0.85 0.2 0.35
1674 1 0.85 0.15 0.4
1713 1 0.8 0.2 0.4
1280 1 0.9 0.15 0.35
1319 1 0.95 0.2 0.35
1678 1 0.95 0.15 0.4
1717 1 0.9 0.2 0.4
1284 1 0 0.25 0.35
1288 1 0.1 0.25 0.35
1323 1 0.05 0.3 0.35
1682 1 0.05 0.25 0.4
1721 1 0 0.3 0.4
1725 1 0.1 0.3 0.4
1292 1 0.2 0.25 0.35
1327 1 0.15 0.3 0.35
1686 1 0.15 0.25 0.4
1729 1 0.2 0.3 0.4
1296 1 0.3 0.25 0.35
1331 1 0.25 0.3 0.35
1690 1 0.25 0.25 0.4
1733 1 0.3 0.3 0.4
1300 1 0.4 0.25 0.35
1335 1 0.35 0.3 0.35
1694 1 0.35 0.25 0.4
1737 1 0.4 0.3 0.4
1304 1 0.5 0.25 0.35
1339 1 0.45 0.3 0.35
1343 1 0.55 0.3 0.35
1698 1 0.45 0.25 0.4
1702 1 0.55 0.25 0.4
1741 1 0.5 0.3 0.4
1308 1 0.6 0.25 0.35
1347 1 0.65 0.3 0.35
1706 1 0.65 0.25 0.4
1745 1 0.6 0.3 0.4
1312 1 0.7 0.25 0.35
1351 1 0.75 0.3 0.35
1710 1 0.75 0.25 0.4
1749 1 0.7 0.3 0.4
1316 1 0.8 0.25 0.35
1355 1 0.85 0.3 0.35
1714 1 0.85 0.25 0.4
1753 1 0.8 0.3 0.4
1320 1 0.9 0.25 0.35
1359 1 0.95 0.3 0.35
1718 1 0.95 0.25 0.4
1757 1 0.9 0.3 0.4
1324 1 0 0.35 0.35
1328 1 0.1 0.35 0.35
1363 1 0.05 0.4 0.35
1722 1 0.05 0.35 0.4
1761 1 0 0.4 0.4
1765 1 0.1 0.4 0.4
1332 1 0.2 0.35 0.35
1367 1 0.15 0.4 0.35
1726 1 0.15 0.35 0.4
1769 1 0.2 0.4 0.4
1336 1 0.3 0.35 0.35
1371 1 0.25 0.4 0.35