LAMMPS (23 May 2014)
  using 4 OpenMP thread(s) per MPI task
units		metal
dimension	3
atom_style	atomic

boundary	p p p
lattice		fcc 3.68
Lattice spacing in x,y,z = 3.68 3.68 3.68
region		box block 0 10 0 10 0 10
create_box	1 box
Created orthogonal box = (0 0 0) to (36.8 36.8 36.8)
  1 by 1 by 1 MPI processor grid
#create_atoms	1 region box #random 64000 123456789 box

read_dump	model.dump 0 x y z scaled yes add yes
  orthogonal box = (0 0 0) to (36.8 36.8 36.8)
  0 atoms before read
  4000 atoms in snapshot
  0 atoms purged
  0 atoms replaced
  0 atoms trimmed
  4000 atoms added
  4000 atoms after read

mass		1 63.546


#pair_style	morse 6.0
#pair_coeff	1 1 0.3429 1.359 2.866 #D0 alpha R0
pair_style      soft 6.0 #1.57079632675 #pi/2
pair_coeff      1 1 0.5 6.0 #1.57079632675

#pair_modify	shift yes

#neighbor	0.0 bin
#neigh_modify	delay 0 every 1 check yes

timestep	0.00001
fix		1 all nve

compute		1 all pe/atom
compute		2 all ke/atom

dump		1 all custom 4000 out.dump x y z c_1 c_2
thermo		40

#minimize 	1e-15 1e-15 5000 5000

run		4000
Memory usage per processor = 5.99814 Mbytes
Step Temp E_pair E_mol TotEng Press 
       0            0    26491.748            0    26491.748    931250.21 
      40 1.0527832e-30    26491.748            0    26491.748    931250.21 
      80 4.2111329e-30    26491.748            0    26491.748    931250.21 
     120 9.4750489e-30    26491.748            0    26491.748    931250.21 
     160 1.6844531e-29    26491.748            0    26491.748    931250.21 
     200 2.631958e-29    26491.748            0    26491.748    931250.21 
     240 3.7900196e-29    26491.748            0    26491.748    931250.21 
     280 5.1586378e-29    26491.748            0    26491.748    931250.21 
     320 6.7378126e-29    26491.748            0    26491.748    931250.21 
     360 8.527544e-29    26491.748            0    26491.748    931250.21 
     400 1.0527832e-28    26491.748            0    26491.748    931250.21 
     440 1.2738677e-28    26491.748            0    26491.748    931250.21 
     480 1.5160078e-28    26491.748            0    26491.748    931250.21 
     520 1.7792036e-28    26491.748            0    26491.748    931250.21 
     560 2.0634551e-28    26491.748            0    26491.748    931250.21 
     600 2.3687622e-28    26491.748            0    26491.748    931250.21 
     640 2.695125e-28    26491.748            0    26491.748    931250.21 
     680 3.0425435e-28    26491.748            0    26491.748    931250.21 
     720 3.4110176e-28    26491.748            0    26491.748    931250.21 
     760 3.8005474e-28    26491.748            0    26491.748    931250.21 
     800 4.2111329e-28    26491.748            0    26491.748    931250.21 
     840 4.642774e-28    26491.748            0    26491.748    931250.21 
     880 5.0954707e-28    26491.748            0    26491.748    931250.21 
     920 5.5692232e-28    26491.748            0    26491.748    931250.21 
     960 6.0640313e-28    26491.748            0    26491.748    931250.21 
    1000 6.5798951e-28    26491.748            0    26491.748    931250.21 
    1040 7.1168145e-28    26491.748            0    26491.748    931250.21 
    1080 7.6747896e-28    26491.748            0    26491.748    931250.21 
    1120 8.2538241e-28    26491.748            0    26491.748    931250.21 
    1160 8.8539456e-28    26491.748            0    26491.748    931250.21 
    1200 9.4751253e-28    26491.748            0    26491.748    931250.21 
    1240 1.0117363e-27    26491.748            0    26491.748    931250.21 
    1280 1.0780653e-27    26491.748            0    26491.748    931250.21 
    1320 1.146499e-27    26491.748            0    26491.748    931250.21 
    1360 1.2170384e-27    26491.748            0    26491.748    931250.21 
    1400 1.2896915e-27    26491.748            0    26491.748    931250.21 
    1440 1.3644534e-27    26491.748            0    26491.748    931250.21 
    1480 1.4413233e-27    26491.748            0    26491.748    931250.21 
    1520 1.5203031e-27    26491.748            0    26491.748    931250.21 
    1560 1.6013921e-27    26491.748            0    26491.748    931250.21 
    1600 1.6845879e-27    26491.748            0    26491.748    931250.21 
    1640 1.7698904e-27    26491.748            0    26491.748    931250.21 
    1680   1.8573e-27    26491.748            0    26491.748    931250.21 
    1720 1.9468204e-27    26491.748            0    26491.748    931250.21 
    1760 2.0384473e-27    26491.748            0    26491.748    931250.21 
    1800 2.1321812e-27    26491.748            0    26491.748    931250.21 
    1840  2.22802e-27    26491.748            0    26491.748    931250.21 
    1880 2.3259621e-27    26491.748            0    26491.748    931250.21 
    1920 2.4260072e-27    26491.748            0    26491.748    931250.21 
    1960 2.5281523e-27    26491.748            0    26491.748    931250.21 
    2000 2.6323958e-27    26491.748            0    26491.748    931250.21 
    2040 2.7387448e-27    26491.748            0    26491.748    931250.21 
    2080 2.8471814e-27    26491.748            0    26491.748    931250.21 
    2120 2.9577109e-27    26491.748            0    26491.748    931250.21 
    2160 3.070341e-27    26491.748            0    26491.748    931250.21 
    2200 3.1850734e-27    26491.748            0    26491.748    931250.21 
    2240 3.3019037e-27    26491.748            0    26491.748    931250.21 
    2280 3.420835e-27    26491.748            0    26491.748    931250.21 
    2320 3.5418733e-27    26491.748            0    26491.748    931250.21 
    2360 3.6650217e-27    26491.748            0    26491.748    931250.21 
    2400 3.7902452e-27    26491.748            0    26491.748    931250.21 
    2440 3.9175498e-27    26491.748            0    26491.748    931250.21 
    2480 4.046962e-27    26491.748            0    26491.748    931250.21 
    2520 4.1784927e-27    26491.748            0    26491.748    931250.21 
    2560 4.3121329e-27    26491.748            0    26491.748    931250.21 
    2600 4.4478789e-27    26491.748            0    26491.748    931250.21 
    2640 4.5856407e-27    26491.748            0    26491.748    931250.21 
    2680 4.7255071e-27    26491.748            0    26491.748    931250.21 
    2720 4.8674577e-27    26491.748            0    26491.748    931250.21 
    2760 5.0115133e-27    26491.748            0    26491.748    931250.21 
    2800 5.1577087e-27    26491.748            0    26491.748    931250.21 
    2840 5.3060485e-27    26491.748            0    26491.748    931250.21 
    2880 5.4565039e-27    26491.748            0    26491.748    931250.21 
    2920 5.6090725e-27    26491.748            0    26491.748    931250.21 
    2960 5.7637299e-27    26491.748            0    26491.748    931250.21 
    3000 5.9205108e-27    26491.748            0    26491.748    931250.21 
    3040 6.0794382e-27    26491.748            0    26491.748    931250.21 
    3080 6.240502e-27    26491.748            0    26491.748    931250.21 
    3120 6.4037301e-27    26491.748            0    26491.748    931250.21 
    3160 6.5691216e-27    26491.748            0    26491.748    931250.21 
    3200 6.736643e-27    26491.748            0    26491.748    931250.21 
    3240 6.9062843e-27    26491.748            0    26491.748    931250.21 
    3280 7.0780522e-27    26491.748            0    26491.748    931250.21 
    3320 7.2519869e-27    26491.748            0    26491.748    931250.21 
    3360 7.4283969e-27    26491.748            0    26491.748    931250.21 
    3400 7.6070693e-27    26491.748            0    26491.748    931250.21 
    3440 7.7878976e-27    26491.748            0    26491.748    931250.21 
    3480 7.9709535e-27    26491.748            0    26491.748    931250.21 
    3520 8.1561605e-27    26491.748            0    26491.748    931250.21 
    3560 8.3435045e-27    26491.748            0    26491.748    931250.21 
    3600 8.5330169e-27    26491.748            0    26491.748    931250.21 
    3640 8.7247063e-27    26491.748            0    26491.748    931250.21 
    3680 8.9186447e-27    26491.748            0    26491.748    931250.21 
    3720 9.1148255e-27    26491.748            0    26491.748    931250.21 
    3760 9.3131716e-27    26491.748            0    26491.748    931250.21 
    3800 9.5136765e-27    26491.748            0    26491.748    931250.21 
    3840 9.7163769e-27    26491.748            0    26491.748    931250.21 
    3880 9.9212563e-27    26491.748            0    26491.748    931250.21 
    3920  1.01283e-26    26491.748            0    26491.748    931250.21 
    3960 1.0337506e-26    26491.748            0    26491.748    931250.21 
    4000 1.0549026e-26    26491.748            0    26491.748    931250.21 
Loop time of 82.8246 on 4 procs (1 MPI x 4 OpenMP) for 4000 steps with 4000 atoms

Pair  time (%) = 81.7541 (98.7075)
Neigh time (%) = 0 (0)
Comm  time (%) = 0.353481 (0.426783)
Outpt time (%) = 0.0174086 (0.0210187)
Other time (%) = 0.69958 (0.844653)

Nlocal:    4000 ave 4000 max 4000 min
Histogram: 1 0 0 0 0 0 0 0 0 0
Nghost:    8195 ave 8195 max 8195 min
Histogram: 1 0 0 0 0 0 0 0 0 0
Neighs:    352000 ave 352000 max 352000 min
Histogram: 1 0 0 0 0 0 0 0 0 0

Total # of neighbors = 352000
Ave neighs/atom = 88
Neighbor list builds = 0
Dangerous builds = 0




