LAMMPS (23 May 2014)
  using 4 OpenMP thread(s) per MPI task
using multi-threaded neighbor list subroutines
prefer double precision OpenMP force kernels
Lattice spacing in x,y,z = 3.68 3.68 3.68
Created orthogonal box = (0 0 0) to (36.8 36.8 36.8)
  1 by 1 by 1 MPI processor grid
Scanning dump file ...
Reading snapshot from dump file ...
  orthogonal box = (0 0 0) to (36.8 36.8 36.8)
  0 atoms before read
  4000 atoms in snapshot
  0 atoms purged
  0 atoms replaced
  0 atoms trimmed
  4000 atoms added
  4000 atoms after read
Last active /omp style is pair_style morse/omp
Setting up run ...
Memory usage per processor = 6.0013 Mbytes
Step Temp E_pair E_mol TotEng Press 
       0            0   -13581.418            0   -13581.418   -19298.229 
      40 3.6261466e-27   -13581.418            0   -13581.418   -19298.229 
      80 1.4432622e-26   -13581.418            0   -13581.418   -19298.229 
     120 3.2250352e-26   -13581.418            0   -13581.418   -19298.229 
     160 5.6695659e-26   -13581.418            0   -13581.418   -19298.229 
     200 8.7531275e-26   -13581.418            0   -13581.418   -19298.229 
     240 1.2431219e-25   -13581.418            0   -13581.418   -19298.229 
     280 1.6655715e-25   -13581.418            0   -13581.418   -19298.229 
     320 2.1397369e-25   -13581.418            0   -13581.418   -19298.229 
     360 2.6622074e-25   -13581.418            0   -13581.418   -19298.229 
     400 3.2303137e-25   -13581.418            0   -13581.418   -19298.229 
     440 3.8438235e-25   -13581.418            0   -13581.418   -19298.229 
     480 4.5029176e-25   -13581.418            0   -13581.418   -19298.229 
     520 4.9863864e-25   -13581.418            0   -13581.418   -19298.229 
     560 5.0143212e-25   -13581.418            0   -13581.418   -19298.229 
     600 5.0906889e-25   -13581.418            0   -13581.418   -19298.229 
     640 5.2410644e-25   -13581.418            0   -13581.418   -19298.229 
     680 5.472335e-25   -13581.418            0   -13581.418   -19298.229 
     720 5.7844998e-25   -13581.418            0   -13581.418   -19298.229 
     760 6.1734681e-25   -13581.418            0   -13581.418   -19298.229 
     800 6.6316826e-25   -13581.418            0   -13581.418   -19298.229 
     840 7.144892e-25   -13581.418            0   -13581.418   -19298.229 
     880 7.8908098e-25   -13581.418            0   -13581.418   -19298.229 
     920 8.8243212e-25   -13581.418            0   -13581.418   -19298.229 
     960 9.7888279e-25   -13581.418            0   -13581.418   -19298.229 
    1000 1.078333e-24   -13581.418            0   -13581.418   -19298.229 
    1040 1.1808823e-24   -13581.418            0   -13581.418   -19298.229 
    1080 1.2868766e-24   -13581.418            0   -13581.418   -19298.229 
    1120 1.3967732e-24   -13581.418            0   -13581.418   -19298.229 
    1160 1.5108459e-24   -13581.418            0   -13581.418   -19298.229 
    1200 1.6298713e-24   -13581.418            0   -13581.418   -19298.229 
    1240 1.7544249e-24   -13581.418            0   -13581.418   -19298.229 
    1280 1.8848624e-24   -13581.418            0   -13581.418   -19298.229 
    1320 2.0217686e-24   -13581.418            0   -13581.418   -19298.229 
    1360 2.1656644e-24   -13581.418            0   -13581.418   -19298.229 
    1400 2.3167723e-24   -13581.418            0   -13581.418   -19298.229 
    1440 2.4753703e-24   -13581.418            0   -13581.418   -19298.229 
    1480 2.6415688e-24   -13581.418            0   -13581.418   -19298.229 
    1520 2.8151485e-24   -13581.418            0   -13581.418   -19298.229 
    1560 2.9960335e-24   -13581.418            0   -13581.418   -19298.229 
    1600 3.1839666e-24   -13581.418            0   -13581.418   -19298.229 
    1640 3.3787551e-24   -13581.418            0   -13581.418   -19298.229 
    1680 3.5799849e-24   -13581.418            0   -13581.418   -19298.229 
    1720 3.7875137e-24   -13581.418            0   -13581.418   -19298.229 
    1760 4.0011537e-24   -13581.418            0   -13581.418   -19298.229 
    1800 4.2208483e-24   -13581.418            0   -13581.418   -19298.229 
    1840 4.4466725e-24   -13581.418            0   -13581.418   -19298.229 
    1880 4.6185822e-24   -13581.418            0   -13581.418   -19298.229 
    1920  4.71667e-24   -13581.418            0   -13581.418   -19298.229 
    1960 4.7851532e-24   -13581.418            0   -13581.418   -19298.229 
    2000 4.8548568e-24   -13581.418            0   -13581.418   -19298.229 
    2040 4.932177e-24   -13581.418            0   -13581.418   -19298.229 
    2080 5.0173954e-24   -13581.418            0   -13581.418   -19298.229 
    2120 5.1097521e-24   -13581.418            0   -13581.418   -19298.229 
    2160 5.2081587e-24   -13581.418            0   -13581.418   -19298.229 
    2200 5.3121796e-24   -13581.418            0   -13581.418   -19298.229 
    2240 5.4844248e-24   -13581.418            0   -13581.418   -19298.229 
    2280 5.7174625e-24   -13581.418            0   -13581.418   -19298.229 
    2320 5.968183e-24   -13581.418            0   -13581.418   -19298.229 
    2360 6.2233997e-24   -13581.418            0   -13581.418   -19298.229 
    2400 6.4804864e-24   -13581.418            0   -13581.418   -19298.229 
    2440 6.7396637e-24   -13581.418            0   -13581.418   -19298.229 
    2480 7.0014628e-24   -13581.418            0   -13581.418   -19298.229 
    2520 7.2661154e-24   -13581.418            0   -13581.418   -19298.229 
    2560 7.5349225e-24   -13581.418            0   -13581.418   -19298.229 
    2600 7.8081678e-24   -13581.418            0   -13581.418   -19298.229 
    2640 8.0866873e-24   -13581.418            0   -13581.418   -19298.229 
    2680 8.3711501e-24   -13581.418            0   -13581.418   -19298.229 
    2720 8.662365e-24   -13581.418            0   -13581.418   -19298.229 
    2760 8.9607168e-24   -13581.418            0   -13581.418   -19298.229 
    2800 9.2669075e-24   -13581.418            0   -13581.418   -19298.229 
    2840 9.5809872e-24   -13581.418            0   -13581.418   -19298.229 
    2880 9.9034609e-24   -13581.418            0   -13581.418   -19298.229 
    2920 1.0234171e-23   -13581.418            0   -13581.418   -19298.229 
    2960 1.0573121e-23   -13581.418            0   -13581.418   -19298.229 
    3000 1.092027e-23   -13581.418            0   -13581.418   -19298.229 
    3040 1.1275434e-23   -13581.418            0   -13581.418   -19298.229 
    3080 1.1638408e-23   -13581.418            0   -13581.418   -19298.229 
    3120 1.2008994e-23   -13581.418            0   -13581.418   -19298.229 
    3160 1.2387284e-23   -13581.418            0   -13581.418   -19298.229 
    3200 1.2773168e-23   -13581.418            0   -13581.418   -19298.229 
    3240 1.3088491e-23   -13581.418            0   -13581.418   -19298.229 
    3280 1.3300197e-23   -13581.418            0   -13581.418   -19298.229 
    3320 1.3457657e-23   -13581.418            0   -13581.418   -19298.229 
    3360 1.3594077e-23   -13581.418            0   -13581.418   -19298.229 
    3400 1.3731842e-23   -13581.418            0   -13581.418   -19298.229 
    3440 1.3870179e-23   -13581.418            0   -13581.418   -19298.229 
    3480 1.4015352e-23   -13581.418            0   -13581.418   -19298.229 
    3520 1.4171962e-23   -13581.418            0   -13581.418   -19298.229 
    3560 1.4341659e-23   -13581.418            0   -13581.418   -19298.229 
    3600 1.4589218e-23   -13581.418            0   -13581.418   -19298.229 
    3640 1.4925521e-23   -13581.418            0   -13581.418   -19298.229 
    3680 1.531655e-23   -13581.418            0   -13581.418   -19298.229 
    3720 1.5718875e-23   -13581.418            0   -13581.418   -19298.229 
    3760 1.6126933e-23   -13581.418            0   -13581.418   -19298.229 
    3800 1.6540035e-23   -13581.418            0   -13581.418   -19298.229 
    3840  1.69546e-23   -13581.418            0   -13581.418   -19298.229 
    3880 1.7370876e-23   -13581.418            0   -13581.418   -19298.229 
    3920 1.7790231e-23   -13581.418            0   -13581.418   -19298.229 
    3960 1.8213012e-23   -13581.418            0   -13581.418   -19298.229 
    4000 1.8640273e-23   -13581.418            0   -13581.418   -19298.229 
Loop time of 29.0006 on 4 procs (1 MPI x 4 OpenMP) for 4000 steps with 4000 atoms

Pair  time (%) = 27.3083 (94.1646)
Neigh time (%) = 0 (0)
Comm  time (%) = 0.427889 (1.47545)
Outpt time (%) = 0.0207117 (0.0714181)
Other time (%) = 1.24369 (4.28849)

Nlocal:    4000 ave 4000 max 4000 min
Histogram: 1 0 0 0 0 0 0 0 0 0
Nghost:    8195 ave 8195 max 8195 min
Histogram: 1 0 0 0 0 0 0 0 0 0
Neighs:    352000 ave 352000 max 352000 min
Histogram: 1 0 0 0 0 0 0 0 0 0

Total # of neighbors = 352000
Ave neighs/atom = 88
Neighbor list builds = 0
Dangerous builds = 0
